# vtk DataFile Version 4.2
vtk output
ASCII
DATASET POLYDATA
POINTS 8 float
-0.5 -0.5 -0.5 0.5 -0.5 -0.5 0.5 0.5 -0.5 
-0.5 0.5 -0.5 -0.5 -0.5 0.5 0.5 -0.5 0.5 
0.5 0.5 0.5 -0.5 0.5 0.5 
POLYGONS 12 48
3 0 3 1 
3 1 3 2 
3 0 1 5 
3 0 5 4 
3 0 4 3 
3 3 4 7 
3 1 2 5 
3 2 6 5 
3 2 3 7 
3 2 7 6 
3 4 5 6 
3 4 6 7 

POINT_DATA 8
SCALARS scalars float
LOOKUP_TABLE default
0 1 2 3 4 5 6 7 
